User input:
--------------------------------------------------------------
 $rem
 JOBTYPE OPT
 EXCHANGE B3LYP
! CORRELATION PBE
! UNRESTRICTED TRUE
 SCF_ALGORITHM diis
 SCF_MAX_CYCLES 150
 BASIS LANL2DZ
 ECP LANL2DZ
 WAVEFUNCTION_ANALYSIS FALSE
 GEOM_OPT_MAX_CYCLES 300

scf_convergence 6

 SYM_IGNORE TRUE
 SYMMETRY   FALSE

molden_format true
 $end

$molecule
1 1
  C  -0.387300   1.188400  -2.481800
  C   0.713100   0.873900  -1.686200
  C  -1.636700   0.714100  -2.086800
  H  -0.283900   1.778400  -3.391400
  C  -1.765700  -0.071300  -0.927600
  H  -2.519200   0.949500  -2.680900
  C  -0.657200  -0.400900  -0.159200
  H  -2.756300  -0.427400  -0.627900
  C   0.634000   0.059600  -0.520000
  H  -0.766700  -1.026000   0.730100
  O   2.039100   1.320500  -2.026100
  C   2.103900   2.645600  -2.651400
  H   1.858600   2.507100  -3.713000
  H   3.139400   2.999600  -2.515600
  H   1.396500   3.316700  -2.146500
  N   1.820600  -0.232100   0.154600
  C   1.820800  -0.981900   1.383600
  C   2.230700  -0.316700   2.565000
  C   1.504000  -2.362300   1.403800
  C   2.244900  -1.034100   3.770500
  C   1.492100  -3.032400   2.634600
  C   1.854400  -2.372900   3.810500
  H   1.198800  -4.084800   2.673100
  H   1.837400  -2.907400   4.760700
  H   2.553800  -0.542400   4.695300
  C   2.641200   1.144500   2.625000
  C   3.799400   1.511500   1.662000
  H   4.447200   0.603100   1.411000
  H   4.495600   2.200900   2.184800
  H   3.431300   2.134300   0.777300
  C   1.434100   2.063600   2.423500
  H   1.707300   3.121400   2.503300
  H   0.672300   1.876900   3.195200
  H   0.935200   1.913300   1.459700
  H   3.035800   1.340100   3.662900
  C  -0.081100  -3.914700   0.196500
  C   1.249700  -3.158300   0.134700
  H  -0.923200  -3.233000   0.360900
  H  -0.105400  -4.663800   0.995800
  H  -0.270100  -4.448500  -0.743500
  C   2.434500  -4.106700  -0.100000
  H   1.191900  -2.474700  -0.749700
  H   2.553400  -4.834200   0.711500
  H   3.382400  -3.547800  -0.176300
  H   2.308400  -4.677500  -1.027000
 Zr   3.687500   0.444000  -0.759600
  C   4.979600  -1.401000  -0.546200
  H   5.806100  -1.485000  -1.256500
  H   4.381200  -2.326200  -0.614100
  H   5.411100  -1.374200   0.465800
  C   5.175700   2.037300  -1.349100
  H   5.122100   3.119200  -1.382000
  H   5.344400   1.656400  -2.380300
  H   6.070000   1.768100  -0.756600
$end
--------------------------------------------------------------

   13    -994.4191215926      5.48E-07 Convergence criterion met
 Total energy in the final basis set = -994.4191215926
    9    -994.4289046606      3.45E-07 Convergence criterion met
 Total energy in the final basis set = -994.4289046606
    9    -994.4349665531      4.06E-07 Convergence criterion met
 Total energy in the final basis set = -994.4349665531
    8    -994.4392446961      7.44E-07 Convergence criterion met
 Total energy in the final basis set = -994.4392446961
    8    -994.4430383306      6.16E-07 Convergence criterion met
 Total energy in the final basis set = -994.4430383306
    8    -994.4465450892      6.02E-07 Convergence criterion met
 Total energy in the final basis set = -994.4465450892
    8    -994.4496019554      5.39E-07 Convergence criterion met
 Total energy in the final basis set = -994.4496019554
    8    -994.4522261357      4.99E-07 Convergence criterion met
    8    -994.4649338377      2.69E-07 Convergence criterion met
 Total energy in the final basis set = -994.4649338377
    6    -994.4649564735      6.07E-07 Convergence criterion met
 Total energy in the final basis set = -994.4649564735
    7    -994.4649842738      6.63E-07 Convergence criterion met
 Total energy in the final basis set = -994.4649842738
    6    -994.4649976258      7.74E-07 Convergence criterion met
 Total energy in the final basis set = -994.4649976258
    6    -994.4650105290      7.08E-07 Convergence criterion met
 Total energy in the final basis set = -994.4650105290
    5    -994.4650134999      8.79E-07 Convergence criterion met
 Total energy in the final basis set = -994.4650134999

             Standard Nuclear Orientation (Angstroms)
    I     Atom           X                Y                Z
 ----------------------------------------------------------------
    1      C      -0.1803340141     0.9712663614    -2.5304338258
    2      C       0.8738393068     0.5941812629    -1.7109980550
    3      C      -1.4656626607     1.0207051907    -1.9694845431
    4      H      -0.0348417289     1.2153390856    -3.5750995378
    5      C      -1.6616362341     0.6966859268    -0.6216354626
    6      H      -2.3049033309     1.3097462033    -2.5906699978
    7      C      -0.5834349093     0.3319700271     0.1915842432
    8      H      -2.6591415811     0.7340601927    -0.1989848921
    9      C       0.7143135790     0.2853394602    -0.3428515392
   10      H      -0.7328992201     0.0841344334     1.2357374902
   11      O       2.2440940217     0.4703795668    -2.1695399162
   12      C       2.5112057732     0.5349075904    -3.6248898409
   13      H       1.8722126595    -0.1921123627    -4.1276263089
   14      H       3.5600750303     0.2711472362    -3.7540351921
   15      H       2.3242598615     1.5492603953    -3.9799628152
   16      N       1.8927897747    -0.0502407346     0.3577738405
   17      C       1.9113127117    -0.9540825899     1.4853841999
   18      C       2.3195396808    -0.4622043938     2.7565279390
   19      C       1.5851356820    -2.3276665708     1.3042672670
   20      C       2.3561971005    -1.3592648308     3.8359121264
   21      C       1.6209474052    -3.1721286148     2.4240019950
   22      C       1.9987667613    -2.6988871503     3.6800602942
   23      H       1.3624828828    -4.2183368946     2.3036678616
   24      H       2.0258538428    -3.3710680275     4.5307464895
   25      H       2.6618768373    -0.9964086801     4.8122612366
   26      C       2.6837409809     0.9978151593     3.0554811621
   27      C       3.8184860495     1.5937088532     2.1840039443
   28      H       4.5709497700     0.8296756399     1.9059333652
   29      H       4.3845095248     2.3579306844     2.7285210687
   30      H       3.4139936267     2.1484039538     1.3156338691
   31      C       1.4530529808     1.9353648816     3.0566372029
   32      H       1.7406735647     2.9502804795     3.3550508293
   33      H       0.7003296443     1.5780541962     3.7659470529
   34      H       0.9900299937     1.9871968159     2.0655247574
   35      H       3.0773825654     0.9886062229     4.0790969510
   36      C      -0.2425961594    -3.4229707795    -0.0928583865
   37      C       1.2222607752    -2.9249587871    -0.0573333947
   38      H      -0.9469157209    -2.6117664253     0.1183080281
   39      H      -0.4077031091    -4.2161472724     0.6447836106
   40      H      -0.4798538750    -3.8317630258    -1.0814186955
   41      C       2.1944816776    -4.0640685245    -0.4497125396
   42      H       1.3208419967    -2.1407397313    -0.8157972343
   43      H       2.1105430916    -4.9158436487     0.2339128700
   44      H       3.2377115615    -3.7276254232    -0.4346934743
   45      H       1.9634298741    -4.4257639733    -1.4579313424
   46      Zr      3.6617565988     0.5922149318    -0.4611723376
   47      C       5.4048214626    -0.7578257215    -0.5573794321
   48      H       6.3281464119    -0.2083605394    -0.8011833145
   49      H       5.2396331380    -1.5037891312    -1.3560392751
   50      H       5.5761715094    -1.3256746599     0.3692962308
   51      C       4.1079297827     2.6536615012    -1.1823469784
   52      H       3.2543225191     3.3449809379    -1.1631160669
   53      H       4.4799782114     2.6121159642    -2.2201467729
   54      H       4.9165423212     3.0903653384    -0.5723147541
 ----------------------------------------------------------------

    5    -994.4650144336      5.93E-07 Convergence criterion met
 Total energy in the final basis set = -994.4650144336
 Final energy is   -994.465014433574
 **  OPTIMIZATION CONVERGED  **
 Total job time:  9939.40s(wall), 9917.45s(cpu)
        *  Thank you very much for using Q-Chem.  Have a nice day.  *
