User input:
--------------------------------------------------------------
 $rem
 JOBTYPE OPT
 EXCHANGE B3LYP
! CORRELATION PBE
! UNRESTRICTED TRUE
 SCF_ALGORITHM diis
 SCF_MAX_CYCLES 150
 BASIS LANL2DZ
 ECP LANL2DZ
 WAVEFUNCTION_ANALYSIS FALSE
 GEOM_OPT_MAX_CYCLES 300

scf_convergence 6

 SYM_IGNORE TRUE
 SYMMETRY   FALSE

molden_format true
 $end

$molecule
1 1
  C  -1.233300   1.086300  -1.655900
  C  -0.248000   0.553900  -0.827300
  C  -2.443300   1.466800  -1.078100
  H  -1.075300   1.213800  -2.725800
  C  -2.638700   1.325000   0.305500
  H  -3.238600   1.882500  -1.700000
  C  -1.643200   0.807100   1.123700
  H  -3.590700   1.637600   0.746000
  C  -0.401900   0.390200   0.582300
  H  -1.812500   0.708900   2.201700
  O   1.051300   0.199900  -1.340600
  C   1.104800  -0.276100  -2.718100
  H   0.342200  -1.058400  -2.847700
  H   2.113900  -0.692000  -2.846300
  H   0.932800   0.586400  -3.378900
  N   0.701400  -0.061700   1.317500
  C   0.634300  -0.351300   2.718800
  C   1.610700   0.286800   3.540700
  C  -0.283400  -1.269600   3.273700
  C   1.559400   0.084200   4.921100
  C  -0.300200  -1.437500   4.668900
  C   0.596600  -0.757800   5.486600
  H  -1.027800  -2.120700   5.114200
  H   0.561900  -0.891000   6.569300
  H   2.268200   0.579300   5.587400
  C   2.715000   1.143100   2.921800
  C   2.142600   2.397800   2.220200
  H   1.922100   2.346500   1.110400
  H   2.814400   3.270000   2.330300
  H   1.190500   2.701400   2.693800
  C   3.773800   1.604000   3.928400
  H   4.566100   2.193400   3.448200
  H   4.263400   0.764100   4.438800
  H   3.336700   2.246400   4.706900
  H   3.340200   0.429400   2.199200
  C  -2.678800  -1.860100   2.784900
  C  -1.210800  -2.130400   2.432200
  H  -2.927200  -0.794000   2.720700
  H  -2.932900  -2.190700   3.799100
  H  -3.348900  -2.393800   2.100000
  C  -0.861900  -3.614700   2.619000
  H  -1.068800  -1.898800   1.345800
  H  -1.053300  -3.965400   3.640500
  H   0.194700  -3.812100   2.400300
  H  -1.463200  -4.244000   1.949800
 Zr   2.595000   0.352900   0.248300
  C   4.049700  -1.376900   0.346800
  H   5.041800  -1.030800   0.022600
  H   3.705500  -2.156700  -0.348800
  H   4.173700  -1.866600   1.317200
  C   3.793300   2.021900  -0.685300
  H   3.368900   2.960400  -1.033400
  H   4.086400   1.414400  -1.571100
  H   4.706400   2.268800  -0.131600
$end
--------------------------------------------------------------

   13    -994.4284793882      5.14E-07 Convergence criterion met
 Total energy in the final basis set = -994.4284793882
    8    -994.4390510598      7.64E-07 Convergence criterion met
 Total energy in the final basis set = -994.4390510598
    8    -994.4444496876      9.67E-07 Convergence criterion met
 Total energy in the final basis set = -994.4444496876
    8    -994.4475310265      5.26E-07 Convergence criterion met
 Total energy in the final basis set = -994.4475310265
    8    -994.4498041251      4.65E-07 Convergence criterion met
 Total energy in the final basis set = -994.4498041251
    8    -994.4516487749      5.48E-07 Convergence criterion met
 Total energy in the final basis set = -994.4516487749
    8    -994.4530450016      4.30E-07 Convergence criterion met
 Total energy in the final basis set = -994.4530450016
    8    -994.4540466467      3.56E-07 Convergence criterion met
    6    -994.4673921509      6.26E-07 Convergence criterion met
 Total energy in the final basis set = -994.4673921509
    6    -994.4673961462      8.28E-07 Convergence criterion met
 Total energy in the final basis set = -994.4673961462
    6    -994.4674004184      9.02E-07 Convergence criterion met
 Total energy in the final basis set = -994.4674004184
    6    -994.4674055912      5.96E-07 Convergence criterion met
 Total energy in the final basis set = -994.4674055912
    6    -994.4674088210      5.11E-07 Convergence criterion met
 Total energy in the final basis set = -994.4674088210
    5    -994.4674111662      8.80E-07 Convergence criterion met
 Total energy in the final basis set = -994.4674111662

             Standard Nuclear Orientation (Angstroms)
    I     Atom           X                Y                Z
 ----------------------------------------------------------------
    1      C      -1.2612985944     0.9924183453    -1.6848575670
    2      C      -0.2815772412     0.4383204294    -0.8711976966
    3      C      -2.2459924985     1.7878196635    -1.0867831900
    4      H      -1.2784574217     0.8090770044    -2.7522833514
    5      C      -2.2166004897     2.0196124101     0.2959728958
    6      H      -3.0291969170     2.2189086408    -1.6984424839
    7      C      -1.2063056114     1.4792904938     1.0938602319
    8      H      -2.9840580524     2.6332341938     0.7538712485
    9      C      -0.2023832139     0.6745042391     0.5226059016
   10      H      -1.1815385502     1.6652450619     2.1610108040
   11      O       0.7725292599    -0.4222072340    -1.4038082594
   12      C       0.4510590450    -1.3119955827    -2.5516276727
   13      H      -0.4969585797    -1.8096886035    -2.3456549901
   14      H       1.2651914479    -2.0343798237    -2.6126729893
   15      H       0.4021618445    -0.7150206442    -3.4620886181
   16      N       0.8875435611     0.1073204045     1.2316322653
   17      C       0.7965259273    -0.2208624079     2.6393190571
   18      C       1.6044293096     0.4923579450     3.5679531546
   19      C      -0.0691675023    -1.2640726959     3.0601980544
   20      C       1.4656711012     0.1871688297     4.9295540596
   21      C      -0.1706514194    -1.5214058297     4.4360518860
   22      C       0.5775192068    -0.7989602736     5.3640907941
   23      H      -0.8349468546    -2.3062556496     4.7810152925
   24      H       0.4848701154    -1.0145417674     6.4230932360
   25      H       2.0600742084     0.7222740293     5.6600970492
   26      C       2.5810996723     1.5871872603     3.1286777032
   27      C       1.8858495938     2.9679617285     3.0538604803
   28      H       1.0396577670     2.9549581449     2.3590676641
   29      H       2.5912901431     3.7387671143     2.7236830506
   30      H       1.5084687740     3.2541962465     4.0423827102
   31      C       3.8568111094     1.6603837235     3.9923554855
   32      H       4.5798813724     2.3414665091     3.5309971230
   33      H       4.3299211140     0.6789863342     4.1037358021
   34      H       3.6434602468     2.0498488960     4.9934536861
   35      H       2.9183487538     1.3494750760     2.1031647981
   36      C      -2.3858522190    -1.9734391037     2.2594384905
   37      C      -0.8580545313    -2.1368367585     2.0816540105
   38      H      -2.6987916322    -0.9362299819     2.1006473709
   39      H      -2.7015842612    -2.2695055996     3.2660196260
   40      H      -2.9227234218    -2.6057979788     1.5431292478
   41      C      -0.4478681921    -3.6243597300     2.2088506939
   42      H      -0.6093116890    -1.8192042601     1.0620586027
   43      H      -0.7135544447    -4.0270226167     3.1921547776
   44      H       0.6323441224    -3.7565100545     2.0764898655
   45      H      -0.9656675573    -4.2266025093     1.4535362329
   46      Zr      2.4615748112    -0.1530037811    -0.0349856412
   47      C       4.0087447959    -1.6261918779     0.4858391083
   48      H       5.0224122326    -1.2187910695     0.3460075785
   49      H       3.9270518490    -2.5375795751    -0.1313465515
   50      H       3.9099377529    -1.9364246831     1.5386011538
   51      C       3.3363176800     1.7829811727    -0.6387214414
   52      H       2.7444835956     2.6615776729    -0.3527116473
   53      H       3.4476457341     1.7944107968    -1.7379294430
   54      H       4.3446647479     1.8892377256    -0.2073196496
 ----------------------------------------------------------------

    6    -994.4674116976      4.00E-07 Convergence criterion met
 Total energy in the final basis set = -994.4674116976
 Final energy is   -994.467411697602
 **  OPTIMIZATION CONVERGED  **
 Total job time:  15074.41s(wall), 15051.20s(cpu)
        *  Thank you very much for using Q-Chem.  Have a nice day.  *
