User input:
--------------------------------------------------------------
 $rem
 JOBTYPE OPT
 EXCHANGE B3LYP
! CORRELATION PBE
! UNRESTRICTED TRUE
 SCF_ALGORITHM diis
 SCF_MAX_CYCLES 150
 BASIS LANL2DZ
 ECP LANL2DZ
 WAVEFUNCTION_ANALYSIS FALSE
 GEOM_OPT_MAX_CYCLES 300

scf_convergence 6

 SYM_IGNORE TRUE
 SYMMETRY   FALSE

molden_format true
 $end

$molecule
1 1
  C  -0.392400   0.386400  -2.976700
  C   0.672800   0.388500  -2.082400
  C  -1.627300  -0.089700  -2.529700
  H  -0.291600   0.732500  -4.004200
  C  -1.774100  -0.558300  -1.215700
  H  -2.483700  -0.095900  -3.206900
  C  -0.699200  -0.563300  -0.332600
  H  -2.748600  -0.927000  -0.881800
  C   0.567500  -0.086900  -0.740000
  H  -0.822400  -0.946500   0.685600
  O   1.988400   0.857900  -2.446500
  C   2.122000   1.521400  -3.741800
  H   1.955900   0.765200  -4.523500
  H   3.154300   1.905000  -3.769900
  H   1.396000   2.347000  -3.797300
  N   1.708300  -0.020800   0.072800
  C   1.737300  -0.587000   1.396000
  C   2.087800   0.286300   2.461800
  C   1.517600  -1.962500   1.639200
  C   1.992400  -0.187600   3.774100
  C   1.470400  -2.403400   2.970700
  C   1.658400  -1.519500   4.030500
  H   1.291900  -3.460500   3.178200
  H   1.575100  -1.873900   5.058500
  H   2.182400   0.478400   4.618400
  C   2.573300   1.711300   2.225200
  C   1.396000   2.687100   2.207500
  H   0.649500   2.441000   1.443300
  H   1.716700   3.722600   2.037200
  H   0.865800   2.676300   3.171500
  C   3.617400   2.142100   3.260600
  H   4.016400   3.141300   3.045300
  H   4.461200   1.441600   3.308600
  H   3.188700   2.193300   4.271600
  H   3.142600   1.803000   1.210600
  C   0.150900  -3.850300   0.658000
  C   1.414800  -2.993500   0.525800
  H  -0.759700  -3.247500   0.577000
  H   0.107500  -4.387000   1.613900
  H   0.109300  -4.614600  -0.128900
  C   2.673800  -3.874500   0.538200
  H   1.377300  -2.482400  -0.469100
  H   2.721900  -4.511400   1.430000
  H   3.587800  -3.270000   0.512900
  H   2.691700  -4.549600  -0.326100
 Zr   3.414300   1.065100  -0.719400
  C   5.249700  -0.071900  -0.093700
  H   5.727200  -0.650500  -0.890700
  H   4.905400  -0.781600   0.675700
  H   6.019700   0.570200   0.348100
  C   3.996700   3.180700  -1.245100
  H   3.299800   3.915100  -1.641700
  H   4.777800   2.981700  -2.004900
  H   4.498700   3.652300  -0.389500
$end
--------------------------------------------------------------

   13    -994.4379717231      6.15E-07 Convergence criterion met
 Total energy in the final basis set = -994.4379717231
    8    -994.4485843184      7.25E-07 Convergence criterion met
 Total energy in the final basis set = -994.4485843184
    8    -994.4537160596      7.26E-07 Convergence criterion met
 Total energy in the final basis set = -994.4537160596
    8    -994.4567939460      7.03E-07 Convergence criterion met
 Total energy in the final basis set = -994.4567939460
    8    -994.4593087252      6.76E-07 Convergence criterion met
 Total energy in the final basis set = -994.4593087252
    8    -994.4610683416      5.77E-07 Convergence criterion met
 Total energy in the final basis set = -994.4610683416
    8    -994.4622892625      5.79E-07 Convergence criterion met
 Total energy in the final basis set = -994.4622892625
    8    -994.4630838331      5.91E-07 Convergence criterion met
    6    -994.4670612707      7.76E-07 Convergence criterion met
 Total energy in the final basis set = -994.4670612707
    6    -994.4670732236      4.54E-07 Convergence criterion met
 Total energy in the final basis set = -994.4670732236
    6    -994.4670815226      3.70E-07 Convergence criterion met
 Total energy in the final basis set = -994.4670815226
    6    -994.4670886250      4.03E-07 Convergence criterion met
 Total energy in the final basis set = -994.4670886250
    6    -994.4670910685      4.40E-07 Convergence criterion met
 Total energy in the final basis set = -994.4670910685
    6    -994.4670947295      6.77E-07 Convergence criterion met
 Total energy in the final basis set = -994.4670947295

             Standard Nuclear Orientation (Angstroms)
    I     Atom           X                Y                Z
 ----------------------------------------------------------------
    1      C      -0.2133583657     0.4730186882    -2.9252799351
    2      C       0.8622595853     0.3079869692    -2.0617160492
    3      C      -1.5029919807     0.4850608361    -2.3811765818
    4      H      -0.0677336346     0.5785031681    -3.9935153856
    5      C      -1.6826274329     0.3474511060    -0.9968808508
    6      H      -2.3583544891     0.5983007268    -3.0360557634
    7      C      -0.5882778389     0.2128035163    -0.1405496582
    8      H      -2.6843076738     0.3541211109    -0.5826223138
    9      C       0.7211399252     0.1975441329    -0.6574947592
   10      H      -0.7253560772     0.1125497070     0.9293288362
   11      O       2.2416050457     0.2663366009    -2.5426306804
   12      C       2.5170618738    -0.3662850846    -3.8605596533
   13      H       1.9841632505    -1.3165184756    -3.9049217483
   14      H       3.5951240207    -0.5218452654    -3.9016283756
   15      H       2.1986452745     0.3108140250    -4.6528862341
   16      N       1.9011551499     0.1067195547     0.1262195680
   17      C       1.9042407554    -0.5384809264     1.4236192851
   18      C       2.1804289488     0.2427694354     2.5802608704
   19      C       1.6539446201    -1.9322491538     1.5145034794
   20      C       2.1275107415    -0.3914975049     3.8297978581
   21      C       1.6069221309    -2.5110302525     2.7926741161
   22      C       1.8289010434    -1.7511981382     3.9396026896
   23      H       1.4059280407    -3.5727009373     2.8871027627
   24      H       1.7881562723    -2.2184794253     4.9175846372
   25      H       2.3243506826     0.1797996982     4.7284792133
   26      C       2.4959117509     1.7392877535     2.4984978658
   27      C       1.2044058131     2.5904356735     2.4653156979
   28      H       0.5497076552     2.3044992181     1.6356938017
   29      H       1.4453803504     3.6545192270     2.3634648058
   30      H       0.6441803622     2.4582443254     3.3983343994
   31      C       3.4498801211     2.2372590080     3.6031383281
   32      H       3.7523291568     3.2688510158     3.3943275348
   33      H       4.3519681013     1.6201456847     3.6703496163
   34      H       2.9627158428     2.2375269668     4.5838141271
   35      H       3.0241238807     1.9271896405     1.5430573636
   36      C       0.1161100339    -3.5432527573     0.2648606941
   37      C       1.4881486593    -2.8305878945     0.2872424175
   38      H      -0.7094206535    -2.8239597522     0.2829139629
   39      H       0.0018665270    -4.2106320465     1.1261672734
   40      H       0.0195616086    -4.1525016045    -0.6408528232
   41      C       2.6427730309    -3.8595200852     0.1978375081
   42      H       1.5484622396    -2.2039834361    -0.6089819679
   43      H       2.6355741026    -4.5409485496     1.0552431679
   44      H       3.6205290321    -3.3636781400     0.1768970941
   45      H       2.5416716314    -4.4644537116    -0.7104519096
   46      Zr      3.4309171887     1.0225478713    -0.8630499872
   47      C       5.5028830049     0.4967983373    -0.3488308726
   48      H       5.9601199452    -0.1465297970    -1.1206051086
   49      H       5.5516448398    -0.0541293416     0.6041424603
   50      H       6.1302537473     1.3971506961    -0.2510703364
   51      C       3.1374934370     3.2085129249    -0.9384561916
   52      H       2.1609078587     3.5407103082    -0.5640503259
   53      H       3.2294097689     3.5432369549    -1.9874656584
   54      H       3.9233610947     3.7194673982    -0.3600382647
 ----------------------------------------------------------------

    7    -994.4670937434      5.90E-07 Convergence criterion met
 Total energy in the final basis set = -994.4670937434
 Final energy is   -994.467093743431
 **  OPTIMIZATION CONVERGED  **
 Total job time:  6877.94s(wall), 6851.00s(cpu)
        *  Thank you very much for using Q-Chem.  Have a nice day.  *
